5.118803501129150391e+00 1.345714926719665527e-01 3.522290945053100586e+00 6.985563635826110840e-01 3.377535104751586914e+00 7.026186943054199219e+00 2.969907522201538086e+00 3.183026313781738281e+00 2.316856622695922852e+00 7.701922416687011719e+00 1.277693390846252441e+00 3.939627856016159058e-02 5.822746753692626953e+00 6.145246028900146484e+00 4.772097587585449219e+00 4.637712478637695312e+00 7.012402534484863281e+00 8.683264851570129395e-01 2.915642261505126953e+00 1.859257102012634277e+00 7.512422561645507812e+00 7.721033096313476562e+00 5.643859863281250000e+00 2.786344766616821289e+00 4.795773506164550781e+00 7.694818019866943359e+00 6.067106723785400391e+00 6.783649921417236328e-01 2.071078777313232422e+00 2.845332145690917969e+00 7.282884597778320312e+00 7.863553524017333984e+00 6.857163906097412109e+00 7.817702770233154297e+00 7.898217678070068359e+00 1.721196532249450684e+00 2.242173433303833008e+00 5.700728893280029297e+00 2.761137247085571289e+00 2.271356105804443359e+00 2.444412708282470703e+00 4.927755355834960938e+00 2.255808591842651367e+00 4.761653244495391846e-01 1.123672842979431152e+00 3.509813249111175537e-01 5.434492111206054688e+00 6.991483211517333984e+00 2.105613231658935547e+00 1.841605262598022819e-04 3.251065015792846680e+00 2.879367351531982422e+00 6.768916130065917969e+00 7.295887470245361328e+00 4.758064746856689453e+00 3.997325420379638672e+00 4.693559646606445312e+00 3.071807861328125000e+00 4.699518680572509766e+00 6.059910297393798828e+00 7.486411571502685547e+00 1.257708072662353516e-01 4.447121620178222656e+00 3.376425266265869141e+00 6.552921295166015625e+00 4.358752727508544922e+00 5.642275333404541016e+00 5.308256626129150391e+00 1.945240497589111328e+00 6.963338375091552734e+00 4.236768722534179688e+00 1.175634026527404785e+00 3.524074792861938477e+00 4.713854312896728516e+00 1.088403165340423584e-01 9.841831326484680176e-01 7.847303867340087891e+00 7.221410274505615234e+00 1.170304059982299805e+00 5.778630256652832031e+00 5.040463924407958984e+00 7.942306041717529297e+00 3.775790691375732422e+00 4.105966091156005859e+00 6.282551288604736328e+00 2.468498468399047852e+00 5.600263118743896484e+00 4.654149055480957031e+00 1.322084665298461914e+00 1.591721177101135254e+00 6.720267772674560547e+00 2.725901603698730469e+00 2.939153909683227539e+00 4.832467079162597656e+00 1.037664175033569336e+00 7.602688789367675781e+00
4.396231174468994141e+00 1.926286697387695312e+00 4.352476596832275391e+00 3.112432658672332764e-01 6.078699231147766113e-01 5.578682899475097656e+00 2.531304836273193359e+00 3.810507059097290039e+00 2.094356536865234375e+00 7.353282451629638672e+00 1.667988896369934082e+00 1.152352765202522278e-01 7.363468170166015625e+00 6.272716045379638672e+00 4.615453243255615234e+00 4.437871932983398438e+00 7.131494045257568359e+00 8.416527509689331055e-01 2.447437047958374023e+00 2.653537034988403320e+00 1.560682803392410278e-01 7.961590290069580078e+00 5.185457706451416016e+00 2.755566835403442383e+00 4.086503505706787109e+00 7.501492977142333984e+00 6.215796947479248047e+00 6.911958456039428711e-01 2.883605480194091797e+00 1.995553970336914062e+00 6.489816665649414062e+00 7.937565326690673828e+00 6.635691165924072266e+00 7.402104854583740234e+00 7.206186771392822266e+00 6.026010513305664062e-01 2.266511678695678711e+00 6.348821163177490234e+00 2.970373153686523438e+00 2.087014675140380859e+00 2.572069644927978516e+00 3.925715208053588867e+00 2.978758096694946289e+00 6.952204108238220215e-01 2.283888339996337891e+00 7.416198730468750000e+00 4.389155387878417969e+00 6.814386367797851562e+00 2.522800445556640625e+00 7.165694981813430786e-02 5.409764289855957031e+00 2.430561065673828125e+00 5.358088970184326172e+00 7.063542842864990234e+00 5.700911521911621094e+00 4.432122707366943359e+00 4.644456386566162109e+00 3.428117036819458008e+00 3.354611396789550781e+00 6.108414173126220703e+00 7.733788013458251953e+00 5.718570351600646973e-01 3.112288236618041992e+00 4.997130393981933594e+00 7.723619461059570312e+00 3.036491394042968750e+00 3.904547929763793945e+00 4.980885028839111328e+00 3.381240367889404297e+00 6.808052062988281250e+00 3.664594411849975586e+00 1.083754301071166992e+00 4.324357509613037109e+00 4.676265239715576172e+00 4.594947397708892822e-01 1.707732558250427246e+00 1.239281296730041504e-01 7.978856086730957031e+00 1.098827719688415527e+00 5.803858757019042969e+00 5.076926708221435547e+00 8.058158874511718750e+00 3.776257753372192383e+00 4.831227779388427734e+00 6.646426200866699219e+00 2.748242616653442383e+00 5.894405841827392578e+00 4.902222633361816406e+00 1.171996355056762695e+00 1.346058607101440430e+00 6.302915573120117188e+00 2.519806861877441406e+00 2.633288383483886719e+00 4.986422538757324219e+00 1.710154294967651367e+00 7.464210987091064453e+00
4.554899215698242188e+00 1.706457614898681641e+00 4.354020118713378906e+00 4.140995144844055176e-01 8.025847434997558594e+00 4.609056949615478516e+00 3.000014066696166992e+00 5.170031547546386719e+00 1.754092335700988770e+00 7.337196826934814453e+00 1.303589582443237305e+00 1.169911101460456848e-01 6.428322315216064453e+00 5.994726657867431641e+00 3.181409597396850586e+00 3.897777557373046875e+00 6.339431285858154297e+00 4.931618869304656982e-01 1.959170341491699219e+00 2.190006017684936523e+00 4.530057013034820557e-01 3.755330145359039307e-01 4.769320011138916016e+00 2.559741497039794922e+00 4.838138103485107422e+00 5.919669151306152344e+00 6.154933452606201172e+00 7.656233787536621094e+00 2.687852144241333008e+00 1.721482992172241211e+00 6.467112064361572266e+00 2.054779082536697388e-01 6.194762706756591797e+00 7.246023178100585938e+00 6.649560928344726562e+00 7.498888373374938965e-01 1.359343647956848145e+00 6.615410327911376953e+00 2.274660825729370117e+00 1.584542512893676758e+00 2.517660617828369141e+00 2.888787984848022461e+00 2.924534559249877930e+00 2.482206225395202637e-01 2.883963584899902344e+00 7.596813201904296875e+00 6.276810646057128906e+00 6.245488643646240234e+00 2.008955001831054688e+00 9.029579758644104004e-01 6.302456855773925781e+00 1.250211596488952637e+00 4.381759643554687500e+00 7.833853721618652344e+00 5.973649501800537109e+00 4.827921867370605469e+00 5.119140625000000000e+00 3.327097654342651367e+00 3.819522619247436523e+00 5.967266559600830078e+00 1.801675856113433838e-01 1.228716224431991577e-01 1.947928786277770996e+00 5.509874343872070312e+00 1.577590703964233398e-01 3.295356988906860352e+00 3.596489906311035156e+00 4.980289936065673828e+00 3.990140676498413086e+00 6.277364253997802734e+00 4.625763416290283203e+00 1.075034618377685547e+00 4.208009719848632812e+00 3.856789112091064453e+00 7.683959007263183594e+00 2.306902170181274414e+00 8.017998695373535156e+00 7.265132665634155273e-01 2.297106981277465820e+00 6.650918960571289062e+00 5.873218059539794922e+00 1.073300004005432129e+00 4.044833660125732422e+00 5.258758068084716797e+00 7.887931823730468750e+00 2.051760673522949219e+00 6.082848072052001953e+00 5.119764804840087891e+00 2.456335544586181641e+00 1.749994039535522461e+00 6.326985836029052734e+00 2.624020338058471680e+00 4.538439750671386719e+00 4.592882633209228516e+00 1.336344599723815918e+00 7.397562980651855469e+00
4.438779830932617188e+00 1.813442111015319824e+00 5.141530036926269531e+00 1.278437256813049316e+00 4.158459007740020752e-01 4.487418651580810547e+00 2.476670265197753906e+00 4.341144084930419922e+00 9.935275316238403320e-01 6.743434906005859375e+00 1.055890560150146484e+00 7.323342800140380859e+00 5.943245410919189453e+00 6.047173976898193359e+00 2.265634536743164062e+00 5.239870071411132812e+00 6.570585727691650391e+00 2.993537783622741699e-01 1.743902683258056641e+00 2.235997915267944336e+00 7.085218429565429688e-01 1.117277860641479492e+00 3.744802474975585938e+00 3.403895854949951172e+00 3.836477518081665039e+00 5.164387702941894531e+00 6.158272266387939453e+00 6.857429981231689453e+00 2.959543704986572266e+00 1.935932636260986328e+00 5.730591773986816406e+00 3.784619644284248352e-02 4.643921375274658203e+00 7.270212650299072266e+00 7.191310405731201172e+00 6.083663105964660645e-01 5.928753018379211426e-01 6.389689922332763672e+00 2.506490468978881836e+00 2.923703432083129883e+00 1.285317778587341309e+00 3.443080902099609375e+00 3.236403703689575195e+00 7.178202152252197266e+00 3.397834300994873047e+00 2.223096974194049835e-02 7.623108863830566406e+00 6.028736591339111328e+00 2.736340999603271484e+00 1.374234557151794434e+00 7.101321220397949219e+00 7.930119514465332031e+00 4.726253986358642578e+00 2.967903614044189453e-01 6.699552536010742188e+00 4.891766071319580078e+00 5.126017570495605469e+00 2.454690217971801758e+00 3.601456642150878906e+00 5.114787101745605469e+00 8.075647354125976562e+00 1.157159805297851562e+00 1.619422674179077148e+00 5.732077598571777344e+00 6.722572445869445801e-01 2.341269016265869141e+00 4.015932083129882812e+00 5.288420677185058594e+00 4.172708988189697266e+00 5.884640216827392578e+00 4.687348842620849609e+00 8.024459838867187500e+00 4.083904266357421875e+00 2.730342388153076172e+00 7.615568637847900391e+00 2.165179014205932617e+00 7.485117435455322266e+00 1.219745397567749023e+00 2.429633855819702148e+00 7.181878566741943359e+00 6.529689311981201172e+00 1.030172467231750488e+00 5.320783138275146484e+00 5.629970073699951172e+00 4.066480398178100586e-01 3.060381412506103516e+00 6.356856346130371094e+00 4.151451110839843750e+00 2.969415664672851562e+00 3.167959451675415039e+00 7.684107303619384766e+00 1.828337430953979492e+00 4.087402820587158203e+00 4.644808292388916016e+00 4.484772682189941406e-01 7.826619625091552734e+00
6.766500949859619141e+00 2.493881940841674805e+00 4.664932250976562500e+00 2.438593387603759766e+00 4.873489737510681152e-01 4.785605907440185547e+00 2.397335767745971680e+00 5.879945278167724609e+00 1.281567573547363281e+00 6.477110385894775391e+00 2.268078088760375977e+00 7.570783138275146484e+00 6.401883125305175781e+00 5.750316619873046875e+00 2.249226570129394531e+00 4.696045875549316406e+00 5.875775337219238281e+00 4.039636552333831787e-01 1.675015330314636230e+00 2.984786510467529297e+00 1.696929693222045898e+00 7.937542915344238281e+00 3.711477041244506836e+00 3.227828741073608398e+00 3.307934284210205078e+00 4.209486961364746094e+00 7.423467636108398438e+00 5.418392658233642578e+00 3.934359788894653320e+00 1.731929302215576172e+00 5.793767452239990234e+00 7.013976573944091797e+00 4.405102729797363281e+00 5.020285844802856445e-01 6.785845756530761719e+00 8.039534568786621094e+00 2.455715835094451904e-01 6.807629585266113281e+00 3.857069969177246094e+00 4.799597263336181641e+00 7.779223918914794922e-01 3.605871677398681641e+00 2.556092739105224609e+00 6.148926258087158203e+00 3.559729099273681641e+00 7.148157119750976562e+00 7.852934837341308594e+00 5.886684894561767578e+00 8.474531769752502441e-01 9.489489793777465820e-01 7.160745620727539062e+00 7.928462505340576172e+00 4.726897716522216797e+00 1.161410570144653320e+00 7.196517944335937500e+00 5.389004707336425781e+00 5.041199684143066406e+00 2.402128696441650391e+00 2.946710348129272461e+00 5.655608654022216797e+00 7.878277301788330078e+00 1.532415628433227539e+00 7.829739451408386230e-01 5.746311187744140625e+00 9.290268421173095703e-01 1.563978672027587891e+00 4.505355834960937500e+00 4.940448760986328125e+00 4.557837009429931641e+00 5.926288604736328125e+00 4.407817363739013672e+00 6.453841686248779297e+00 3.789268493652343750e+00 2.135270357131958008e+00 6.635821819305419922e+00 2.160992860794067383e+00 8.032577514648437500e+00 1.638734459877014160e+00 3.811782360076904297e+00 7.058821201324462891e+00 6.541399478912353516e+00 1.107774853706359863e+00 5.645659446716308594e+00 5.350822925567626953e+00 4.128171205520629883e-01 4.099003791809082031e+00 6.689806938171386719e+00 3.580190181732177734e+00 2.843574762344360352e+00 2.467990875244140625e+00 7.780599117279052734e+00 7.331829667091369629e-01 3.559745788574218750e+00 4.039187908172607422e+00 2.243978381156921387e-01 8.022830963134765625e+00
6.955036640167236328e+00 2.123157024383544922e+00 5.553242206573486328e+00 2.647857189178466797e+00 5.343492627143859863e-01 4.432272434234619141e+00 2.094540357589721680e+00 6.586670875549316406e+00 1.526171803474426270e+00 5.783443927764892578e+00 2.470888376235961914e+00 7.274359226226806641e+00 6.960550308227539062e+00 7.020837306976318359e+00 1.861365795135498047e+00 4.663087368011474609e+00 6.223649501800537109e+00 7.053701877593994141e-01 1.746636986732482910e+00 4.347659587860107422e+00 2.067018270492553711e+00 6.741364955902099609e+00 4.617565631866455078e+00 2.718966007232666016e+00 3.296694040298461914e+00 3.112055301666259766e+00 7.730271816253662109e+00 4.734815597534179688e+00 3.647585868835449219e+00 1.326580882072448730e+00 4.808398723602294922e+00 6.678987503051757812e+00 3.098772764205932617e+00 9.851402044296264648e-01 6.757441520690917969e+00 7.303523063659667969e+00 9.769320487976074219e-01 7.319270610809326172e+00 4.124959468841552734e+00 5.397362709045410156e+00 2.006715297698974609e+00 4.413175106048583984e+00 2.544462680816650391e+00 4.979145526885986328e+00 3.878258228302001953e+00 6.741917133331298828e+00 8.087802886962890625e+00 6.729830265045166016e+00 9.078947901725769043e-01 1.219696879386901855e+00 6.440087795257568359e+00 6.893311023712158203e+00 4.370738983154296875e+00 2.270054519176483154e-01 7.800200939178466797e+00 4.843525409698486328e+00 5.395043373107910156e+00 1.094538450241088867e+00 3.019597530364990234e+00 4.256865978240966797e+00 8.209118992090225220e-02 2.643492221832275391e+00 7.160397171974182129e-01 5.730883598327636719e+00 6.158704161643981934e-01 1.053256750106811523e+00 3.707308053970336914e+00 3.222963571548461914e+00 4.686228752136230469e+00 5.720882892608642578e+00 4.580734729766845703e+00 6.979330062866210938e+00 4.340872287750244141e+00 6.439201831817626953e-01 6.533976078033447266e+00 1.427886009216308594e+00 1.264402985572814941e+00 2.758529663085937500e+00 5.335176467895507812e+00 6.624662876129150391e+00 5.610955238342285156e+00 3.189810037612915039e+00 5.845934867858886719e+00 6.837707996368408203e+00 1.292054533958435059e+00 3.909534215927124023e+00 7.400571346282958984e+00 4.200888633728027344e+00 1.324931979179382324e+00 2.387069940567016602e+00 7.273099899291992188e+00 8.210345506668090820e-01 3.009316682815551758e+00 3.501308679580688477e+00 1.309755537658929825e-02 5.403268933296203613e-01
1.462969481945037842e-01 2.034131765365600586e+00 5.914644241333007812e+00 3.442481756210327148e+00 7.741822242736816406e+00 4.714205741882324219e+00 1.818487286567687988e+00 7.157377719879150391e+00 2.295536041259765625e+00 5.868516445159912109e+00 2.549649953842163086e+00 6.766335964202880859e+00 7.880167007446289062e+00 6.953402519226074219e+00 9.489896893501281738e-01 5.419285297393798828e+00 6.817833900451660156e+00 3.154528141021728516e-01 1.676346898078918457e+00 3.924910306930541992e+00 8.910591602325439453e-01 6.044833660125732422e+00 5.491724014282226562e+00 3.531390666961669922e+00 3.204493761062622070e+00 2.274677038192749023e+00 7.997929096221923828e+00 4.039031028747558594e+00 3.567766666412353516e+00 2.309715032577514648e+00 3.419332265853881836e+00 6.214198112487792969e+00 3.038360357284545898e+00 1.451822042465209961e+00 6.767871379852294922e+00 6.579620361328125000e+00 1.173792362213134766e+00 6.401061058044433594e+00 4.354647159576416016e+00 5.550062656402587891e+00 3.522246122360229492e+00 4.370389938354492188e+00 2.621222972869873047e+00 5.823340415954589844e+00 5.373373985290527344e+00 7.093326568603515625e+00 7.962058067321777344e+00 7.246718883514404297e+00 2.361531496047973633e+00 7.780973315238952637e-01 6.461917400360107422e+00 6.941730976104736328e+00 4.820592403411865234e+00 7.514088749885559082e-01 7.512935638427734375e+00 4.889599800109863281e+00 6.054781913757324219e+00 4.606830477714538574e-01 4.242109298706054688e+00 3.450513839721679688e+00 7.675677299499511719e+00 2.547214031219482422e+00 2.619062960147857666e-01 5.209754467010498047e+00 8.564136028289794922e-01 1.241248846054077148e+00 2.846921920776367188e+00 2.686756372451782227e+00 4.988165378570556641e+00 4.672074794769287109e+00 5.038824081420898438e+00 4.935472011566162109e+00 4.920935153961181641e+00 6.813255310058593750e+00 6.432373523712158203e+00 1.225979804992675781e+00 1.058037161827087402e+00 2.453283786773681641e+00 6.986743450164794922e+00 7.117507457733154297e+00 4.061678409576416016e+00 2.959812641143798828e+00 5.381088256835937500e+00 3.969176858663558960e-02 1.886930465698242188e+00 3.969296693801879883e+00 6.360999107360839844e+00 4.300981044769287109e+00 9.513093233108520508e-01 2.952166080474853516e+00 7.132802486419677734e+00 1.138240933418273926e+00 3.849022865295410156e+00 1.631455063819885254e+00 1.825637668371200562e-01 5.349218249320983887e-01
1.194967031478881836e+00 1.691439747810363770e+00 5.182782649993896484e+00 3.844277620315551758e+00 6.804823875427246094e+00 4.505384445190429688e+00 2.015136241912841797e+00 7.782037258148193359e+00 1.913604855537414551e+00 5.841194629669189453e+00 2.915209293365478516e+00 6.587138652801513672e+00 7.577575206756591797e+00 6.285455226898193359e+00 1.786018729209899902e+00 5.080404281616210938e+00 7.520257949829101562e+00 1.240359783172607422e+00 9.953856468200683594e-01 3.118198633193969727e+00 4.899279177188873291e-01 5.522986412048339844e+00 5.466022968292236328e+00 2.161387920379638672e+00 3.642901659011840820e+00 2.664012670516967773e+00 7.695821285247802734e+00 3.054127454757690430e+00 2.899642944335937500e+00 1.861235022544860840e+00 3.395197629928588867e+00 5.201682567596435547e+00 2.600414514541625977e+00 7.445471733808517456e-02 6.161889076232910156e+00 7.863110542297363281e+00 1.277291059494018555e+00 5.716940879821777344e+00 4.793188095092773438e+00 5.688199520111083984e+00 3.216364383697509766e+00 3.446225643157958984e+00 3.410683155059814453e+00 5.370274543762207031e+00 7.094651699066162109e+00 6.560279846191406250e+00 8.341313600540161133e-01 5.587213993072509766e+00 3.926150798797607422e+00 1.429396718740463257e-01 7.164641380310058594e+00 6.692708015441894531e+00 3.831951618194580078e+00 8.235820531845092773e-01 7.858750820159912109e+00 4.528358459472656250e+00 6.270416259765625000e+00 7.785482883453369141e+00 4.360345840454101562e+00 3.108306646347045898e+00 6.970542907714843750e+00 1.313985228538513184e+00 7.233559489250183105e-01 5.060634136199951172e+00 2.143038034439086914e+00 1.279540777206420898e+00 2.796432256698608398e+00 3.504484415054321289e+00 4.881000518798828125e+00 4.881698608398437500e+00 4.796746253967285156e+00 4.794020175933837891e+00 5.696619033813476562e+00 6.198698043823242188e+00 7.271224498748779297e+00 1.443279862403869629e+00 2.718684196472167969e+00 2.896022081375122070e+00 7.782883644104003906e+00 7.953920841217041016e+00 3.735033988952636719e+00 3.292179584503173828e+00 6.250591754913330078e+00 6.882682442665100098e-01 1.548289060592651367e+00 4.008742332458496094e+00 6.664899349212646484e+00 4.169378280639648438e+00 1.250115633010864258e+00 3.709657669067382812e+00 7.545398712158203125e+00 2.018434047698974609e+00 3.230220317840576172e+00 1.049485325813293457e+00 9.070285558700561523e-01 7.527793407440185547e+00
2.157063484191894531e+00 6.533366441726684570e-01 4.257959365844726562e+00 3.736154317855834961e+00 7.025796890258789062e+00 4.543813228607177734e+00 1.574972629547119141e+00 1.456464052200317383e+00 2.152079582214355469e+00 5.586435794830322266e+00 2.426717281341552734e+00 6.309066295623779297e+00 7.860757827758789062e+00 6.243787765502929688e+00 1.997478127479553223e+00 5.105254173278808594e+00 8.003710746765136719e+00 2.562540769577026367e+00 7.575979709625244141e+00 2.519939422607421875e+00 8.830192089080810547e-01 4.167810440063476562e+00 5.217118740081787109e+00 1.740506410598754883e+00 3.384575843811035156e+00 1.776170015335083008e+00 5.586636543273925781e+00 2.472627878189086914e+00 2.997268676757812500e+00 7.923719882965087891e-01 1.783741593360900879e+00 5.673771381378173828e+00 2.846288681030273438e+00 8.343664556741714478e-02 5.572714328765869141e+00 7.790715217590332031e+00 1.462877392768859863e+00 6.147370338439941406e+00 6.111830234527587891e+00 5.440667152404785156e+00 3.676904678344726562e+00 3.607961654663085938e+00 4.224506855010986328e+00 5.270961284637451172e+00 7.385069847106933594e+00 6.305511474609375000e+00 1.015123486518859863e+00 4.512231349945068359e+00 5.087147712707519531e+00 5.086712241172790527e-01 7.032472610473632812e+00 6.367377281188964844e+00 4.279564380645751953e+00 4.343809783458709717e-01 7.614019393920898438e+00 3.288703680038452148e+00 5.712847232818603516e+00 7.687155723571777344e+00 4.648092269897460938e+00 3.597251176834106445e+00 7.628882884979248047e+00 7.867105484008789062e+00 3.777219951152801514e-01 4.797516345977783203e+00 2.238949775695800781e+00 1.998548060655593872e-01 3.666251182556152344e+00 4.490245342254638672e+00 5.092039585113525391e+00 6.071647644042968750e+00 5.675689697265625000e+00 5.232624053955078125e+00 5.755049705505371094e+00 6.563567638397216797e+00 3.725997507572174072e-01 1.563155531883239746e+00 2.777124404907226562e+00 4.018435478210449219e+00 3.812577128410339355e-01 7.162374019622802734e+00 4.394999027252197266e+00 2.754926919937133789e+00 7.126475811004638672e+00 6.324661374092102051e-01 1.527711510658264160e+00 4.342982292175292969e+00 7.597450256347656250e+00 3.952547788619995117e+00 1.189943432807922363e+00 3.853474378585815430e+00 7.563092231750488281e+00 1.228032588958740234e+00 2.705119371414184570e+00 2.334863424301147461e+00 5.117703676223754883e-01 7.144614696502685547e+00
1.732681870460510254e+00 1.457835733890533447e-01 4.254178047180175781e+00 3.752092123031616211e+00 7.383171081542968750e+00 4.704178333282470703e+00 1.414518356323242188e+00 1.460314035415649414e+00 1.953483939170837402e+00 5.746970653533935547e+00 3.152135133743286133e+00 5.481202602386474609e+00 7.207530498504638672e+00 6.045967578887939453e+00 1.345727324485778809e+00 5.623016834259033203e+00 5.973489284515380859e+00 3.290096759796142578e+00 6.729514598846435547e+00 1.343485236167907715e+00 3.130679428577423096e-01 3.009688377380371094e+00 4.803734779357910156e+00 3.071464061737060547e+00 3.116410732269287109e+00 2.838519096374511719e+00 6.325853347778320312e+00 2.616708278656005859e+00 3.353469133377075195e+00 1.147752523422241211e+00 9.871934652328491211e-01 6.440503597259521484e+00 2.792334556579589844e+00 7.157821655273437500e+00 5.939302921295166016e+00 6.569419860839843750e+00 2.428875923156738281e+00 6.577242851257324219e+00 6.547840595245361328e+00 5.478766918182373047e+00 4.051308631896972656e+00 3.147432565689086914e+00 3.825447082519531250e+00 5.305979728698730469e+00 7.990061759948730469e+00 6.584429740905761719e+00 6.913294792175292969e-01 4.983278751373291016e+00 5.293689727783203125e+00 7.680319786071777344e+00 7.005138397216796875e+00 5.878928661346435547e+00 4.189987182617187500e+00 1.093882322311401367e+00 7.985412478446960449e-01 1.679094552993774414e+00 6.519436836242675781e+00 7.897978782653808594e+00 4.301913738250732422e+00 3.427787542343139648e+00 4.625355601310729980e-01 8.080421447753906250e+00 7.973433017730712891e+00 4.837709426879882812e+00 2.881440877914428711e+00 7.367846965789794922e+00 4.005293846130371094e+00 4.688543319702148438e+00 5.806342601776123047e+00 5.773347854614257812e+00 6.099752426147460938e+00 5.279168128967285156e+00 4.904764175415039062e+00 8.077577590942382812e+00 8.593209385871887207e-01 1.696171879768371582e+00 3.413643598556518555e+00 4.374514579772949219e+00 3.132514059543609619e-01 6.332683086395263672e+00 4.963582515716552734e+00 3.023986339569091797e+00 7.047078132629394531e+00 1.032573103904724121e+00 1.459302544593811035e+00 4.208600521087646484e+00 6.763129711151123047e+00 5.023887157440185547e+00 2.360953569412231445e+00 1.462618827819824219e+00 7.721011161804199219e+00 5.512573942542076111e-02 2.205754041671752930e+00 3.074381589889526367e+00 1.072104334831237793e+00 7.623074054718017578e+00
1.512365221977233887e+00 9.597486853599548340e-01 4.133453845977783203e+00 4.110205650329589844e+00 7.909100055694580078e+00 5.336779594421386719e+00 1.534637689590454102e+00 1.314563870429992676e+00 1.739899992942810059e+00 7.582343101501464844e+00 3.616196393966674805e+00 4.818819999694824219e+00 7.286247253417968750e+00 6.082123279571533203e+00 1.688014268875122070e+00 5.021687984466552734e+00 6.655013084411621094e+00 1.790300250053405762e+00 7.625114917755126953e+00 4.478235542774200439e-01 7.272636890411376953e+00 3.419451236724853516e+00 6.125580787658691406e+00 3.636446237564086914e+00 3.752987384796142578e+00 1.697321414947509766e+00 5.649697780609130859e+00 1.606159448623657227e+00 3.801957607269287109e+00 1.331844687461853027e+00 9.249119758605957031e-01 5.819586753845214844e+00 2.716830253601074219e+00 6.434515953063964844e+00 6.258270740509033203e+00 6.719758510589599609e+00 2.563056945800781250e+00 7.320565700531005859e+00 6.618269443511962891e+00 4.480904579162597656e+00 2.591544628143310547e+00 3.941342353820800781e+00 3.872203111648559570e+00 4.944740772247314453e+00 7.111137509346008301e-01 7.215845108032226562e+00 6.852567791938781738e-01 5.000797271728515625e+00 4.897821426391601562e+00 7.740092277526855469e+00 6.978935241699218750e+00 6.490800380706787109e+00 4.152003288269042969e+00 3.827092945575714111e-01 3.955275416374206543e-01 2.388641834259033203e+00 6.577548027038574219e+00 7.660260200500488281e+00 3.409698486328125000e+00 2.097653388977050781e+00 1.683105230331420898e+00 6.043939590454101562e+00 2.076157033443450928e-01 5.713149547576904297e+00 3.098240137100219727e+00 6.442328453063964844e+00 2.624474287033081055e+00 4.377120494842529297e+00 6.357963562011718750e+00 5.519355773925781250e+00 5.735346794128417969e+00 4.723024368286132812e+00 4.556578636169433594e+00 7.080501914024353027e-01 2.856227636337280273e+00 1.503813982009887695e+00 3.665187835693359375e+00 3.810977935791015625e+00 9.711471199989318848e-01 5.964810848236083984e+00 4.861392498016357422e+00 2.838592290878295898e+00 7.436160087585449219e+00 1.995431542396545410e+00 6.118163466453552246e-01 4.318212032318115234e+00 7.296799659729003906e+00 5.154034137725830078e+00 2.441761732101440430e+00 1.199989557266235352e+00 6.689392089843750000e+00 4.283599257469177246e-01 2.674063444137573242e+00 3.323942184448242188e+00 1.439428806304931641e+00 8.007783889770507812e+00
1.275004863739013672e+00 8.037318229675292969e+00 4.099222660064697266e+00 4.286128520965576172e+00 5.810355186462402344e+00 6.065358161926269531e+00 5.652685165405273438e-01 1.333879828453063965e+00 1.879514932632446289e+00 3.482041060924530029e-01 4.376172065734863281e+00 4.860716819763183594e+00 7.448838710784912109e+00 6.895605087280273438e+00 2.493796825408935547e+00 4.562757015228271484e+00 6.309535026550292969e+00 1.634819388389587402e+00 7.951314926147460938e+00 6.721001148223876953e+00 2.257319986820220947e-01 3.582432508468627930e+00 6.452148437500000000e+00 3.559608221054077148e+00 4.311718940734863281e+00 1.492062926292419434e+00 6.661665439605712891e+00 1.787831425666809082e+00 3.723643064498901367e+00 1.202986478805541992e+00 1.473264336585998535e+00 6.004834651947021484e+00 2.405123472213745117e+00 6.804555416107177734e+00 6.324642181396484375e+00 5.637022495269775391e+00 1.634111166000366211e+00 5.280598998069763184e-01 6.489523887634277344e+00 4.478437900543212891e+00 3.631209611892700195e+00 4.230633258819580078e+00 3.948123216629028320e+00 4.330224990844726562e+00 1.234816789627075195e+00 7.070382595062255859e+00 4.628753066062927246e-01 5.235157489776611328e+00 5.792097568511962891e+00 1.182536840438842773e+00 1.434703320264816284e-01 5.229753971099853516e+00 5.221896171569824219e+00 7.628753185272216797e+00 3.906090185046195984e-02 1.839950680732727051e+00 7.031914710998535156e+00 7.042227268218994141e+00 2.432363986968994141e+00 4.849765002727508545e-01 3.180762052536010742e+00 6.088453769683837891e+00 7.667485713958740234e+00 6.367153644561767578e+00 2.827085256576538086e+00 4.909277439117431641e+00 2.299383640289306641e+00 2.910985469818115234e+00 6.394245624542236328e+00 6.095210552215576172e+00 4.601046085357666016e+00 3.010966777801513672e+00 3.834592819213867188e+00 1.216355681419372559e+00 3.092300415039062500e+00 2.072808980941772461e+00 3.587741851806640625e+00 3.604755640029907227e+00 1.109063744544982910e+00 6.382127285003662109e+00 5.960614204406738281e+00 2.075868844985961914e+00 7.987860679626464844e+00 1.314538121223449707e+00 3.307336866855621338e-01 4.911395549774169922e+00 7.540109634399414062e+00 5.048189163208007812e+00 2.698219776153564453e+00 1.346133828163146973e+00 6.841711521148681641e+00 1.242979407310485840e+00 2.851645708084106445e+00 2.590928077697753906e+00 2.011882543563842773e+00 5.810350775718688965e-01