-6.960452343750000000e+04
-6.960806250000000000e+04
-6.960845312500000000e+04
-6.960848437500000000e+04
-6.960663281250000000e+04
-6.960976562500000000e+04
-6.959759375000000000e+04
-6.960710156250000000e+04
-6.960447656250000000e+04
-6.960175000000000000e+04
-6.960731250000000000e+04
-6.959960937500000000e+04
-6.959548437500000000e+04
-6.960370312500000000e+04
-6.960581250000000000e+04
-6.960112500000000000e+04
-6.960671093750000000e+04
-6.960447656250000000e+04
-6.960979687500000000e+04
-6.960641406250000000e+04
-6.960135156250000000e+04
-6.960471093750000000e+04
-6.960636718750000000e+04
-6.960550781250000000e+04
-6.960678906250000000e+04
-6.960528906250000000e+04
-6.960817968750000000e+04
-6.960495312500000000e+04
-6.960440625000000000e+04
-6.960744531250000000e+04
-6.960635156250000000e+04
-6.960728125000000000e+04
-6.961236718750000000e+04
-6.960000781250000000e+04
-6.959484375000000000e+04
-6.960771093750000000e+04
-6.960538281250000000e+04
-6.960493750000000000e+04
-6.960442187500000000e+04
-6.959937500000000000e+04
-6.960873437500000000e+04
-6.960636718750000000e+04
-6.961037500000000000e+04
-6.959773437500000000e+04
-6.960228906250000000e+04
-6.960733593750000000e+04
-6.960383593750000000e+04
-6.960030468750000000e+04
-6.961390625000000000e+04
-6.960346093750000000e+04
-6.960896093750000000e+04
-6.960395312500000000e+04
-6.960750781250000000e+04
-6.960561718750000000e+04
-6.960628125000000000e+04
-6.961662500000000000e+04
-6.960050000000000000e+04
-6.959359375000000000e+04
-6.960440625000000000e+04
-6.960775781250000000e+04
-6.960299218750000000e+04
-6.961304687500000000e+04
-6.959972656250000000e+04
-6.960132812500000000e+04
-6.961339062500000000e+04
-6.959444531250000000e+04
-6.960067187500000000e+04
-6.960440625000000000e+04
-6.960495312500000000e+04
-6.960325000000000000e+04
-6.960643750000000000e+04
-6.961059375000000000e+04
-6.960835156250000000e+04
-6.960585937500000000e+04
-6.960817968750000000e+04
-6.960622656250000000e+04
-6.960356250000000000e+04
-6.960421093750000000e+04
-6.960889062500000000e+04
-6.960688281250000000e+04
-6.960885937500000000e+04
-6.960379687500000000e+04
-6.959924218750000000e+04
-6.960709375000000000e+04
-6.960346093750000000e+04
-6.960368750000000000e+04
-6.960776562500000000e+04
-6.960067187500000000e+04
-6.961018750000000000e+04
-6.960267968750000000e+04
-6.960100000000000000e+04
-6.960137500000000000e+04
-6.960277343750000000e+04
-6.960855468750000000e+04
-6.960662500000000000e+04
-6.960651562500000000e+04
-6.960681250000000000e+04
-6.960296875000000000e+04
-6.960601562500000000e+04
-6.960859375000000000e+04
-6.960417968750000000e+04
-6.959672656250000000e+04
-6.960385937500000000e+04
-6.960262500000000000e+04
-6.960309375000000000e+04
-6.961032031250000000e+04
-6.960503906250000000e+04
-6.959800000000000000e+04
-6.960617968750000000e+04
-6.960600781250000000e+04
-6.960674218750000000e+04
-6.961191406250000000e+04
-6.960142187500000000e+04
-6.960311718750000000e+04
-6.960993750000000000e+04
-6.960190625000000000e+04
-6.961528906250000000e+04
-6.960536718750000000e+04
-6.961308593750000000e+04
-6.960584375000000000e+04
-6.960576562500000000e+04
-6.959628906250000000e+04
-6.960607812500000000e+04
-6.960527343750000000e+04
-6.960420312500000000e+04
-6.960905468750000000e+04
-6.960955468750000000e+04
-6.961372656250000000e+04
-6.960401562500000000e+04
-6.959860937500000000e+04
-6.959905468750000000e+04
-6.960425781250000000e+04
-6.960575000000000000e+04
-6.959785156250000000e+04
-6.960595312500000000e+04
-6.960025781250000000e+04
-6.960811718750000000e+04
-6.959523437500000000e+04
-6.960378125000000000e+04
-6.960496093750000000e+04
-6.959789843750000000e+04
-6.960487500000000000e+04
-6.959900000000000000e+04
-6.960657031250000000e+04
-6.959992187500000000e+04
-6.960528125000000000e+04
-6.960849218750000000e+04
-6.960421875000000000e+04
-6.960580468750000000e+04
-6.959957031250000000e+04
-6.960482031250000000e+04
-6.961070312500000000e+04
-6.960126562500000000e+04
-6.960075781250000000e+04
-6.960885156250000000e+04
-6.959892187500000000e+04
-6.960881250000000000e+04
-6.961191406250000000e+04
-6.961225781250000000e+04
-6.961355468750000000e+04
-6.960855468750000000e+04
-6.960724218750000000e+04
-6.960416406250000000e+04
-6.960889062500000000e+04
-6.960005468750000000e+04
-6.960145312500000000e+04
-6.960681250000000000e+04
-6.961057031250000000e+04
-6.960306250000000000e+04
-6.959825000000000000e+04
-6.960264062500000000e+04
-6.960209375000000000e+04
-6.959630468750000000e+04
-6.960931250000000000e+04
-6.960364843750000000e+04
-6.960732031250000000e+04
-6.960204687500000000e+04
-6.960740625000000000e+04
-6.960538281250000000e+04
-6.960619531250000000e+04
-6.960655468750000000e+04
-6.960117968750000000e+04
-6.960877343750000000e+04
-6.961044531250000000e+04
-6.960700781250000000e+04
-6.960180468750000000e+04
-6.960665625000000000e+04
-6.960139062500000000e+04
-6.959864843750000000e+04
-6.960292187500000000e+04
-6.960578125000000000e+04
-6.960717968750000000e+04
-6.960648437500000000e+04
-6.960485156250000000e+04
-6.959959375000000000e+04
-6.960800781250000000e+04
-6.960961718750000000e+04
-6.960149218750000000e+04
-6.960974218750000000e+04
-6.960539062500000000e+04
-6.960546093750000000e+04
-6.960547656250000000e+04
-6.960065625000000000e+04
-6.960234375000000000e+04
-6.960909375000000000e+04
-6.961164062500000000e+04
-6.960796093750000000e+04
-6.960787500000000000e+04
-6.960151562500000000e+04
-6.960555468750000000e+04
-6.959757031250000000e+04
-6.960047656250000000e+04
-6.960782031250000000e+04
-6.960514062500000000e+04
-6.960578906250000000e+04
-6.960007031250000000e+04
-6.960285156250000000e+04
-6.960398437500000000e+04
-6.959996875000000000e+04
-6.960140625000000000e+04
-6.959914843750000000e+04
-6.960482031250000000e+04
-6.961093750000000000e+04
-6.960304687500000000e+04
-6.960135156250000000e+04
-6.959882812500000000e+04
-6.960360156250000000e+04
-6.960025000000000000e+04
-6.960100000000000000e+04
-6.960372656250000000e+04
-6.960284375000000000e+04
-6.960852343750000000e+04
-6.959935937500000000e+04
-6.960599218750000000e+04
-6.960423437500000000e+04
-6.960448437500000000e+04
-6.960339843750000000e+04
-6.959807812500000000e+04
-6.960624218750000000e+04
-6.960114843750000000e+04
-6.960659375000000000e+04
-6.960485937500000000e+04
-6.960311718750000000e+04
-6.960100000000000000e+04
-6.959810156250000000e+04
-6.961008593750000000e+04
-6.960879687500000000e+04
-6.960951562500000000e+04
-6.960593750000000000e+04
-6.959937500000000000e+04
-6.961008593750000000e+04
-6.960108593750000000e+04
-6.960345312500000000e+04
-6.960489062500000000e+04
-6.959825781250000000e+04
-6.959719531250000000e+04
-6.960796875000000000e+04
-6.959677343750000000e+04
-6.960273437500000000e+04
-6.960950000000000000e+04
-6.961424218750000000e+04
-6.960517187500000000e+04
-6.961226562500000000e+04
-6.960854687500000000e+04
-6.960795312500000000e+04
-6.960611718750000000e+04
-6.961021093750000000e+04
-6.960050781250000000e+04
-6.960202343750000000e+04
-6.961574218750000000e+04
-6.961335937500000000e+04
-6.960745312500000000e+04
-6.960200781250000000e+04
-6.961071093750000000e+04
-6.960741406250000000e+04
-6.960590625000000000e+04
-6.960302343750000000e+04
-6.959933593750000000e+04
-6.960860156250000000e+04
-6.959938281250000000e+04
-6.959721875000000000e+04
-6.960260937500000000e+04
-6.960159375000000000e+04
-6.961121093750000000e+04
-6.961067968750000000e+04
-6.959931250000000000e+04
-6.960109375000000000e+04
-6.959774218750000000e+04
-6.960217187500000000e+04
-6.960328906250000000e+04
-6.961604687500000000e+04
-6.961289062500000000e+04
-6.960182031250000000e+04
-6.960735156250000000e+04
-6.959717187500000000e+04
-6.959897656250000000e+04
-6.960392187500000000e+04
-6.960660156250000000e+04
-6.960370312500000000e+04
-6.960162500000000000e+04
-6.959628125000000000e+04
-6.960338281250000000e+04
-6.960832031250000000e+04
-6.960390625000000000e+04
-6.960692968750000000e+04
-6.960031250000000000e+04
-6.960860156250000000e+04
-6.960306250000000000e+04
-6.960272656250000000e+04
-6.960165625000000000e+04
-6.960365625000000000e+04
-6.960306250000000000e+04
-6.960798437500000000e+04
-6.960642187500000000e+04
-6.960212500000000000e+04
-6.960505468750000000e+04
-6.960646875000000000e+04
-6.959917968750000000e+04
-6.960837500000000000e+04
-6.959685156250000000e+04
-6.961108593750000000e+04
-6.960574218750000000e+04
-6.960868750000000000e+04
-6.960519531250000000e+04
-6.961161718750000000e+04
-6.960714062500000000e+04
-6.961260937500000000e+04
-6.960827343750000000e+04
-6.961003125000000000e+04
-6.960885937500000000e+04
-6.960094531250000000e+04
-6.961105468750000000e+04
-6.959532812500000000e+04
-6.961023437500000000e+04
-6.958919531250000000e+04
-6.960614843750000000e+04
-6.960241406250000000e+04
-6.960222656250000000e+04
-6.960843750000000000e+04
-6.960233593750000000e+04
-6.960370312500000000e+04
-6.960908593750000000e+04
-6.960045312500000000e+04
-6.960156250000000000e+04
-6.960935937500000000e+04
-6.961017187500000000e+04
-6.959778906250000000e+04
-6.960246875000000000e+04
-6.961711718750000000e+04
-6.960682812500000000e+04
-6.960256250000000000e+04
-6.960707031250000000e+04
-6.961104687500000000e+04
-6.960281250000000000e+04
-6.960457031250000000e+04
-6.960463281250000000e+04
-6.960503125000000000e+04
-6.960758593750000000e+04
-6.960553906250000000e+04
-6.961219531250000000e+04
-6.960728125000000000e+04
-6.960339843750000000e+04
-6.960207031250000000e+04
-6.961139843750000000e+04
-6.960685937500000000e+04
-6.959964843750000000e+04
-6.961125000000000000e+04
-6.960678125000000000e+04
-6.961139843750000000e+04
-6.960593750000000000e+04
-6.960275781250000000e+04
-6.961096875000000000e+04
-6.960349218750000000e+04
-6.960992187500000000e+04
-6.959809375000000000e+04
-6.959927343750000000e+04
-6.960384375000000000e+04
-6.960769531250000000e+04
-6.959701562500000000e+04
-6.960439062500000000e+04
-6.960561718750000000e+04
-6.960801562500000000e+04
-6.960600781250000000e+04
-6.959571093750000000e+04
-6.961598437500000000e+04
-6.960453906250000000e+04
-6.959727343750000000e+04
-6.960007812500000000e+04
-6.960683593750000000e+04
-6.959886718750000000e+04
-6.961352343750000000e+04
-6.960439062500000000e+04
-6.960351562500000000e+04
-6.960274218750000000e+04
-6.960103125000000000e+04
-6.960684375000000000e+04
-6.960450781250000000e+04
-6.959812500000000000e+04
-6.960686718750000000e+04
-6.960415625000000000e+04
