-1.288243681192398071e-01 2.037717700004577637e-01 2.499415874481201172e-01 5.610011219978332520e-01 -4.563806056976318359e+00 -8.222953975200653076e-02 3.352513015270233154e-01 2.908067107200622559e-01 -1.215661391615867615e-01 -6.439924836158752441e-01 8.173052787780761719e+00 2.967114210128784180e+00 2.735922574996948242e+00 -1.801806092262268066e+00 -5.518947839736938477e-01 -1.154448539018630981e-01 1.124180793762207031e+00 -9.704989194869995117e-02 -4.435276985168457031e+00 4.129434585571289062e+00 -2.180317640304565430e+00 2.434111118316650391e+00 3.406312704086303711e+00 1.115585088729858398e+00 -4.406326115131378174e-01 -7.193111777305603027e-01 -1.918938159942626953e+00 4.187940597534179688e+00 -2.802760362625122070e+00 -2.027411699295043945e+00 -1.474115276336669922e+01 -4.715125560760498047e+00 -4.730994701385498047e+00 -4.869677424430847168e-01 -1.549166440963745117e+00 1.533556938171386719e+00 -1.456402778625488281e+00 -2.600533246994018555e+00 -4.918893337249755859e+00 1.622176021337509155e-01 -5.012235045433044434e-01 -7.033175975084304810e-02 -4.162420928478240967e-01 -3.253476619720458984e-01 -7.810096740722656250e-01 -2.709681034088134766e+00 3.067407608032226562e+00 3.803704977035522461e+00 -9.518032073974609375e-01 1.406453967094421387e+00 3.257765054702758789e+00 9.607135653495788574e-01 2.205790728330612183e-01 -5.674386620521545410e-01 2.055067420005798340e-01 -1.354823112487792969e+00 -2.780358314514160156e+00 -1.695221304893493652e+00 -1.375694513320922852e+00 -1.277130246162414551e+00 1.386838197708129883e+00 5.064217448234558105e-01 -1.151465773582458496e+00 3.772394895553588867e+00 8.331817388534545898e-01 3.106005430221557617e+00 -8.872643470764160156e+00 3.409023761749267578e+00 5.114157199859619141e+00 7.217562675476074219e+00 -6.690427303314208984e+00 -8.014144897460937500e+00 1.229744076728820801e+00 -2.110032081604003906e+00 4.730161190032958984e+00 1.098889636993408203e+01 1.144165635108947754e+00 3.911815583705902100e-01 -1.166771888732910156e+00 1.399160027503967285e+00 -2.581248760223388672e+00 4.238397598266601562e+00 3.646468400955200195e+00 7.279155254364013672e+00 8.220036029815673828e-01 -1.576488971710205078e+00 1.556687355041503906e+00 1.146987229585647583e-01 2.729050874710083008e+00 3.713443279266357422e+00 -9.320881843566894531e+00 -4.195837974548339844e+00 -3.211337089538574219e+00 6.228737831115722656e+00 1.192911267280578613e+00 -1.754697799682617188e+00
9.216271638870239258e-01 -8.842124938964843750e-01 4.382856935262680054e-02 -7.689195871353149414e-01 1.600713968276977539e+00 -1.929978132247924805e-01 2.908742904663085938e+00 3.063733339309692383e+00 -1.380607724189758301e+00 2.105589628219604492e+00 -2.215935707092285156e+00 -1.105106234550476074e+00 -8.356270790100097656e+00 4.843792915344238281e+00 2.721818983554840088e-01 -9.406075477600097656e-01 -3.371313810348510742e+00 -2.960093259811401367e+00 -4.128065705299377441e-01 -1.563942551612854004e+00 -1.525663971900939941e+00 4.559905827045440674e-01 8.719459921121597290e-02 -3.089989900588989258e+00 7.879089832305908203e+00 -4.054266452789306641e+00 4.005421638488769531e+00 -3.033147335052490234e+00 -3.382973194122314453e+00 7.766069471836090088e-02 -1.202409148216247559e+00 -1.145708799362182617e+00 -6.649718880653381348e-01 4.141389429569244385e-01 -1.571782588958740234e+00 1.813016057014465332e+00 -2.345668792724609375e+00 3.344386816024780273e+00 -1.776874661445617676e+00 -9.593501091003417969e-01 -1.397390604019165039e+00 2.979143381118774414e+00 -5.174212932586669922e+00 1.157559603452682495e-01 1.285955548286437988e+00 1.691433310508728027e+00 6.450508594512939453e+00 5.929306030273437500e+00 -5.838171958923339844e+00 3.011542320251464844e+00 -5.231989860534667969e+00 -6.598916649818420410e-01 1.384627580642700195e+00 1.463554859161376953e+00 -8.490639328956604004e-01 9.891607761383056641e-01 2.029690742492675781e-01 7.923783063888549805e-01 5.704712867736816406e-02 -1.151025414466857910e+00 5.618212819099426270e-01 -1.134263634681701660e+00 -5.495440363883972168e-01 2.082427024841308594e+00 -2.059019088745117188e+00 4.333075046539306641e+00 3.157173156738281250e+00 1.257423777133226395e-02 1.123973488807678223e+00 -1.221572399139404297e+00 8.126524925231933594e+00 -6.032477855682373047e+00 1.468905329704284668e+00 -9.371977448463439941e-01 -3.782093152403831482e-02 2.557859718799591064e-01 -5.089861750602722168e-01 1.627811789512634277e-01 7.818698883056640625e+00 -3.712673187255859375e-01 2.182347297668457031e+00 5.666903018951416016e+00 -9.186768531799316406e-01 -5.905887603759765625e+00 -5.367454528808593750e+00 -9.681866645812988281e+00 1.094912290573120117e+00 2.256709098815917969e+00 2.460525751113891602e+00 3.413044929504394531e+00 -1.615183353424072266e+00 -2.428123474121093750e+00 7.634244918823242188e+00 -1.692683577537536621e+00 2.078837394714355469e+00 -6.412365913391113281e+00
-9.056533813476562500e+00 3.234761655330657959e-01 2.174118995666503906e+00 -1.597164273262023926e-01 -5.755723267793655396e-02 -1.683627367019653320e+00 -2.526358366012573242e+00 -8.629783630371093750e+00 4.533626556396484375e+00 -2.085730314254760742e+00 -2.650994300842285156e+00 -3.230295419692993164e+00 -3.803474307060241699e-01 1.169773817062377930e+00 -5.243539214134216309e-01 6.249361038208007812e+00 5.406876564025878906e+00 -6.584731578826904297e+00 6.491827964782714844e-01 9.744715690612792969e-01 -3.787284195423126221e-01 -2.411517500877380371e-01 -3.305378437042236328e+00 1.205281853675842285e+00 -6.216935157775878906e+00 7.988090515136718750e+00 6.537178039550781250e+00 -4.931923747062683105e-01 2.067888259887695312e+00 2.889674663543701172e+00 -2.707427978515625000e+00 -6.787419915199279785e-01 -8.841039538383483887e-01 -4.427183046936988831e-02 1.369979500770568848e+00 -2.384505510330200195e+00 1.361121058464050293e+00 -9.488340616226196289e-01 2.735319137573242188e+00 1.742831707000732422e+00 2.438467890024185181e-01 2.466406583786010742e+00 1.574910879135131836e+00 8.799603581428527832e-01 2.949100494384765625e+00 1.953248143196105957e+00 -1.881035208702087402e+00 5.756849646568298340e-01 1.161065578460693359e+00 1.531624555587768555e+00 9.655084460973739624e-02 -8.460398316383361816e-01 1.806678056716918945e+00 -2.454542368650436401e-01 5.912675857543945312e+00 -7.289443969726562500e+00 -4.431189537048339844e+00 -4.010298728942871094e+00 -2.767410278320312500e+00 -6.922844409942626953e+00 -2.193096876144409180e+00 5.153672218322753906e+00 2.869567394256591797e+00 2.086414575576782227e+00 -2.245646715164184570e+00 -2.182810783386230469e+00 2.256580293178558350e-01 1.228398084640502930e+00 -1.738537907600402832e+00 -2.074711322784423828e+00 -2.264708518981933594e+00 -8.582983016967773438e-01 4.689930915832519531e+00 4.126165807247161865e-01 9.997006416320800781e+00 2.113184630870819092e-01 -8.822201192378997803e-02 -4.493631839752197266e+00 9.713937342166900635e-02 -1.400220036506652832e+00 1.142354086041450500e-01 -1.240528345108032227e+00 8.450435400009155273e-01 -1.276131153106689453e+00 3.286448240280151367e+00 1.751224517822265625e+00 9.694872498512268066e-01 -9.319889545440673828e-01 -3.104805350303649902e-01 1.973090469837188721e-01 4.801621437072753906e+00 1.906988143920898438e+00 -2.543836116790771484e+00 -7.945992350578308105e-01 -5.421531200408935547e-01 5.253227055072784424e-02
7.149279117584228516e-01 1.345673799514770508e+00 3.021434783935546875e+00 3.855716586112976074e-01 -2.056137323379516602e+00 1.313856989145278931e-01 1.113706588745117188e+00 3.765539646148681641e+00 6.111289262771606445e-01 1.994701623916625977e+00 2.788740158081054688e+00 -1.066229820251464844e+00 5.650051236152648926e-01 -2.084247112274169922e+00 5.547554016113281250e+00 -7.804069042205810547e+00 2.717204093933105469e+00 -2.197470188140869141e+00 -1.105870366096496582e+00 2.962397038936614990e-01 1.990269780158996582e+00 -1.787860393524169922e+00 7.825613021850585938e-01 -3.279134988784790039e+00 1.362132787704467773e+00 3.203584551811218262e-01 9.345837593078613281e+00 -2.584362983703613281e+00 4.004272460937500000e+00 1.929613016545772552e-02 1.494039893150329590e+00 -3.452630043029785156e+00 1.362744212150573730e+00 4.869595527648925781e+00 8.694636225700378418e-01 -7.755308747291564941e-01 -9.380835294723510742e-01 -1.549225807189941406e+00 2.251319885253906250e+00 -6.619639992713928223e-01 9.804622530937194824e-01 -3.571712255477905273e+00 -4.316085577011108398e-02 1.399251073598861694e-01 -6.566953063011169434e-01 -3.350769281387329102e+00 -1.636652827262878418e+00 2.319594144821166992e+00 -7.246519088745117188e+00 -4.692681789398193359e+00 -6.284863471984863281e+00 7.260902881622314453e+00 -2.731054127216339111e-01 7.871787548065185547e-01 -1.395222306251525879e+00 1.798306778073310852e-02 -4.162557125091552734e-01 2.609557867050170898e+00 -3.505365610122680664e+00 1.444525599479675293e+00 1.406696200370788574e+00 -3.721707344055175781e+00 6.779045462608337402e-01 -1.300538897514343262e+00 1.413985937833786011e-01 -1.409006595611572266e+00 2.716693401336669922e+00 -1.910326242446899414e+00 -6.978795528411865234e+00 -4.168191432952880859e+00 -7.480702877044677734e+00 -2.647934913635253906e+00 5.800243854522705078e+00 7.410912990570068359e+00 2.418593168258666992e+00 1.232368111610412598e+00 1.200632214546203613e+00 -2.481119155883789062e+00 9.554839730262756348e-01 -7.268020510673522949e-01 4.026263058185577393e-01 -1.908105760812759399e-01 1.876010179519653320e+00 7.667724043130874634e-02 -1.371766924858093262e+00 -1.682915210723876953e+00 1.214436292648315430e+00 3.196893692016601562e+00 4.396770477294921875e+00 -3.296366453170776367e+00 -2.708590269088745117e+00 1.386222481727600098e+00 8.854139447212219238e-01 -1.020741105079650879e+00 3.321297466754913330e-01 5.531952381134033203e-01
-2.811715364456176758e+00 3.448548913002014160e-01 3.039190292358398438e+00 -6.045851707458496094e-01 1.434076577425003052e-01 -2.964435815811157227e-01 -2.494124472141265869e-01 -4.208141803741455078e+00 -1.518761038780212402e+00 -4.070681095123291016e+00 1.191946744918823242e+00 -3.901980161666870117e+00 -2.291560173034667969e-01 6.634939670562744141e+00 3.113962173461914062e+00 2.006619215011596680e+00 1.163517832756042480e+00 2.336816638708114624e-01 -3.553063869476318359e+00 -3.001300431787967682e-02 -2.632487058639526367e+00 1.311837077140808105e+00 2.230090200901031494e-01 5.970688462257385254e-01 -8.965540528297424316e-01 2.224727153778076172e+00 1.432426214218139648e+00 -2.119759023189544678e-01 -4.493397712707519531e+00 -1.677808403968811035e+00 -3.151262521743774414e+00 7.723517417907714844e-01 -1.595594644546508789e+00 -9.718071222305297852e-01 -1.548971533775329590e-01 -6.552371978759765625e-01 3.609533309936523438e-01 9.051325321197509766e-01 -5.771205902099609375e+00 -2.581269025802612305e+00 1.875959038734436035e+00 2.286369800567626953e+00 2.052462100982666016e+00 3.638849258422851562e-01 1.297954618930816650e-01 7.058637738227844238e-01 1.277857661247253418e+00 2.766641139984130859e+00 4.015685081481933594e+00 5.746364593505859375e-01 -4.259537220001220703e+00 2.469332456588745117e+00 -1.677847743034362793e+00 -3.762852907180786133e+00 -1.726731657981872559e+00 -2.351034402847290039e+00 -1.692956924438476562e+00 -8.801454544067382812e+00 4.264431953430175781e+00 -7.975912094116210938e+00 2.876554250717163086e+00 -9.148049950599670410e-01 7.866575717926025391e+00 3.832720518112182617e-01 -1.886207759380340576e-01 -1.454052329063415527e+00 -1.060730576515197754e+00 -2.009596824645996094e+00 -5.874035358428955078e-01 -3.583485364913940430e+00 -1.656097054481506348e+00 4.483406066894531250e+00 8.991971015930175781e+00 -6.034401416778564453e+00 3.994797229766845703e+00 -7.434437870979309082e-01 4.231192111968994141e+00 1.391165614128112793e+00 -1.793195009231567383e+00 -6.100155830383300781e+00 -8.380691528320312500e+00 7.868913173675537109e+00 -1.304395347833633423e-01 3.858411788940429688e+00 -6.066426038742065430e-01 -3.031468391418457031e+00 3.114473104476928711e+00 2.900157690048217773e+00 -1.357655644416809082e+00 3.158038854598999023e+00 4.350928962230682373e-01 3.012495279312133789e+00 -2.613477468490600586e+00 1.268451213836669922e+00 5.134226322174072266e+00 7.310397624969482422e+00
9.148142814636230469e+00 1.446326613426208496e+00 5.862886905670166016e-01 5.984899044036865234e+00 1.495982289314270020e+00 3.616681098937988281e+00 -1.519255399703979492e+00 -8.015620708465576172e-02 1.647115111351013184e+00 -1.596454858779907227e+00 -4.119967460632324219e+00 3.672300577163696289e+00 3.168721675872802734e+00 -4.969336032867431641e+00 -1.479322671890258789e+00 2.224960088729858398e+00 -2.685594320297241211e+00 -1.678657978773117065e-01 -2.536241531372070312e+00 -3.836385250091552734e+00 -5.425014972686767578e+00 3.235445618629455566e-01 -6.384247541427612305e-01 1.614217162132263184e+00 1.670088768005371094e+00 -2.353240728378295898e+00 -1.262917757034301758e+00 6.877210140228271484e-01 4.346437454223632812e-01 2.972689628601074219e+00 -1.269085288047790527e+00 1.310979854315519333e-02 1.100298285484313965e+00 -1.853443384170532227e+00 5.325120091438293457e-01 -2.445098757743835449e-01 -4.073040485382080078e+00 -4.140751838684082031e+00 1.081282645463943481e-01 -2.866128921508789062e+00 -3.562487125396728516e+00 -5.399728775024414062e+00 1.550838112831115723e+00 5.390952587127685547e+00 4.566004753112792969e+00 1.880453586578369141e+00 -4.891261756420135498e-01 1.482782006263732910e+00 1.934059500694274902e+00 -2.204762250185012817e-01 8.123195171356201172e-01 8.550498008728027344e+00 2.423050642013549805e+00 8.993216514587402344e+00 -1.567308604717254639e-01 1.289651274681091309e+00 -1.778290718793869019e-01 -6.870499849319458008e-01 2.825719676911830902e-02 1.141399145126342773e+00 3.810123205184936523e-01 -4.840783119201660156e+00 2.707461357116699219e+00 2.756071090698242188e+00 1.256004095077514648e+00 -4.258574962615966797e+00 -2.598850250244140625e+00 1.497084617614746094e+00 1.974874258041381836e+00 -9.654272079467773438e+00 5.675789356231689453e+00 -1.101625919342041016e+01 -1.643752098083496094e+00 2.818654179573059082e-01 -1.314060568809509277e+00 7.476963996887207031e-01 8.861263990402221680e-01 -5.138301849365234375e+00 -2.874262034893035889e-01 -1.078256726264953613e+00 -1.830155611038208008e+00 7.907762378454208374e-02 -8.574673533439636230e-01 -1.046893358230590820e+00 -2.172927141189575195e+00 2.928467035293579102e+00 -2.652310371398925781e+00 -3.647033214569091797e+00 2.323848009109497070e+00 3.551803588867187500e+00 -1.147843837738037109e+00 2.975752353668212891e+00 2.639547586441040039e+00 -3.378248691558837891e+00 2.993031024932861328e+00 -1.773382544517517090e+00
3.176122605800628662e-01 1.757233440876007080e-01 -8.169136047363281250e-01 9.122405648231506348e-01 3.849486827850341797e+00 -8.502536267042160034e-02 -3.309896945953369141e+00 -3.518342256546020508e+00 -9.411588311195373535e-01 -2.078473567962646484e+00 -1.283237710595130920e-02 -3.157505095005035400e-01 4.924981892108917236e-01 -9.520404934883117676e-01 3.631672143936157227e+00 -8.563514947891235352e-01 -2.664171457290649414e+00 6.551381111145019531e+00 -3.657633304595947266e+00 -2.682574510574340820e+00 3.372021913528442383e+00 1.371268868446350098e+00 -2.732990264892578125e+00 -9.017185211181640625e+00 2.233735084533691406e+00 1.370482921600341797e+00 1.633340239524841309e+00 -3.493628203868865967e-01 1.830784976482391357e-01 -8.558976650238037109e-01 7.236204147338867188e+00 -5.431063175201416016e+00 -2.156685143709182739e-01 -5.276882648468017578e+00 1.684126973152160645e+00 5.999985218048095703e+00 -7.764402866363525391e+00 2.994541168212890625e+00 -5.137969017028808594e+00 6.529845714569091797e+00 -1.508285045623779297e+01 -2.932286977767944336e+00 9.085063934326171875e+00 -6.597127437591552734e+00 1.931756854057312012e+00 9.866634756326675415e-02 3.180921316146850586e+00 -4.344392299652099609e+00 -2.794971764087677002e-01 2.488884627819061279e-01 -1.142277240753173828e+00 -9.301416277885437012e-01 -2.125984430313110352e+00 4.493118822574615479e-01 -8.662173151969909668e-01 6.595291197299957275e-02 1.524497121572494507e-01 -1.667813062667846680e-01 -1.492777228355407715e+00 -4.994450509548187256e-01 1.062172412872314453e+00 -1.404201388359069824e+00 1.695034623146057129e+00 5.097805976867675781e+00 1.702058792114257812e+00 -8.491030693054199219e+00 3.044428586959838867e+00 -2.295148134231567383e+00 -4.876206874847412109e+00 -7.855565547943115234e+00 6.869670867919921875e+00 8.001104354858398438e+00 -9.344569444656372070e-01 1.046372771263122559e+00 -4.385308742523193359e+00 -2.158272743225097656e+00 7.666175842285156250e+00 4.201998233795166016e+00 1.867562770843505859e+00 2.600175857543945312e+00 2.903461933135986328e+00 4.325120925903320312e+00 4.076358318328857422e+00 -9.565005898475646973e-01 -3.717415332794189453e+00 4.224610626697540283e-01 4.036583900451660156e+00 -4.203343868255615234e+00 1.399546742439270020e+00 8.040594100952148438e+00 -6.689547896385192871e-01 5.438174247741699219e+00 -1.124935626983642578e+00 1.399425029754638672e+00 2.017907381057739258e+00 -6.462743759155273438e+00
-4.565425813198089600e-01 -1.369215607643127441e+00 4.907642304897308350e-01 -9.064203500747680664e-01 2.738295316696166992e+00 5.281586050987243652e-01 -9.301981925964355469e-01 1.357727408409118652e+00 1.226636409759521484e+00 -3.523794710636138916e-01 7.576928734779357910e-01 -6.738322228193283081e-02 1.523973464965820312e+00 3.285210609436035156e+00 3.001406192779541016e+00 1.722358942031860352e+00 4.578545570373535156e+00 1.139510154724121094e+00 -1.133651614189147949e+00 -1.679179817438125610e-01 2.376453161239624023e+00 1.966624110937118530e-01 -1.662452340126037598e+00 1.583313703536987305e+00 -2.443202018737792969e+00 7.282544970512390137e-01 -4.220935344696044922e+00 6.384912014007568359e+00 9.207066893577575684e-01 -2.683586359024047852e+00 -4.089627742767333984e+00 -1.561845302581787109e+00 4.796915054321289062e+00 3.100763797760009766e+00 1.894594669342041016e+00 -3.434179544448852539e+00 7.082235217094421387e-01 1.630228638648986816e+00 -1.057249307632446289e+00 -1.705900311470031738e+00 -1.712360501289367676e+00 -9.350737929344177246e-01 7.345611453056335449e-01 -4.547169685363769531e+00 -1.107201862335205078e+01 -4.536089599132537842e-01 -1.071519136428833008e+00 7.375624179840087891e-01 -3.529106676578521729e-01 2.376501709222793579e-01 -1.058425068855285645e+00 4.363583922386169434e-01 1.045068621635437012e+00 -1.560138583183288574e+00 -1.169722270965576172e+01 1.005386829376220703e+00 -3.456292390823364258e+00 1.108197689056396484e+00 1.460401415824890137e+00 1.902086853981018066e+00 4.278314113616943359e+00 -3.092141628265380859e+00 -1.483737230300903320e+00 -1.428162336349487305e+00 -1.183467864990234375e+00 2.528131961822509766e+00 2.367425441741943359e+00 -2.599089741706848145e-01 -1.692947626113891602e+00 9.436332583427429199e-01 2.012125253677368164e+00 3.158950805664062500e+00 1.224062919616699219e+00 -1.571139544248580933e-01 -1.041395545005798340e+00 -3.251446247100830078e+00 -8.520219922065734863e-01 4.213504791259765625e+00 1.092752099037170410e+00 -4.072677612304687500e+00 8.986006490886211395e-03 -2.464890956878662109e+00 4.379895210266113281e+00 5.141816139221191406e+00 8.457500457763671875e+00 -2.161945819854736328e+00 1.108558416366577148e+00 -5.678662061691284180e-01 -1.080073714256286621e+00 3.276986777782440186e-01 -2.812793493270874023e+00 -1.131570100784301758e+00 -1.873668432235717773e-01 7.671231627464294434e-01 -1.948381304740905762e+00 -3.197241723537445068e-01
-1.163427162170410156e+01 -7.056027889251708984e+00 1.338031291961669922e+00 8.756612539291381836e-01 -2.783679962158203125e+00 1.067079901695251465e+00 2.698476791381835938e+00 -3.112977266311645508e+00 -3.200955629348754883e+00 1.432459950447082520e+00 5.407855033874511719e+00 -3.403252840042114258e+00 -1.853677034378051758e+00 1.461609482765197754e+00 -3.005617260932922363e-01 2.145550012588500977e+00 -2.533375263214111328e+00 -3.730815649032592773e+00 2.474013328552246094e+00 -9.183408021926879883e-01 -2.447318077087402344e+00 -5.715444684028625488e-01 -7.710908651351928711e-01 2.043065071105957031e+00 -1.264248490333557129e+00 7.893007278442382812e+00 1.219557666778564453e+01 3.434815883636474609e+00 -1.484504699707031250e+00 2.298712968826293945e+00 3.172017097473144531e+00 -1.115187525749206543e+00 4.960221350193023682e-01 -7.304666996002197266e+00 5.689312458038330078e+00 6.696261167526245117e-01 3.092921495437622070e+00 2.902762889862060547e-01 -6.197274327278137207e-01 -3.776043355464935303e-01 -1.373110055923461914e+00 -1.109834194183349609e+00 -1.768754243850708008e+00 -1.156085014343261719e+00 -1.630101084709167480e+00 3.447453677654266357e-01 -1.332394361495971680e+00 2.345888853073120117e+00 -7.519191503524780273e-02 -8.553933143615722656e+00 -9.907687902450561523e-01 -2.543459415435791016e+00 1.051623463630676270e+00 -8.500736206769943237e-02 2.610939025878906250e+00 4.708695411682128906e-01 4.580813944339752197e-01 9.036903977394104004e-01 -1.691580891609191895e+00 4.481919109821319580e-01 1.958324551582336426e+00 4.248709201812744141e+00 -1.699273586273193359e+00 -2.093195676803588867e+00 2.485770463943481445e+00 7.077775001525878906e+00 -1.496704339981079102e+00 -3.922225832939147949e-01 -4.393467903137207031e-01 -7.230251282453536987e-02 1.123142242431640625e+00 9.641511440277099609e-01 -5.363218784332275391e-01 1.376488566398620605e+00 4.416980743408203125e-01 -1.007537484169006348e+00 5.475389957427978516e+00 1.282277345657348633e+00 -3.416186094284057617e+00 9.852522015571594238e-01 -1.265573740005493164e+00 1.023954749107360840e-01 -1.541110634803771973e+00 2.208398103713989258e+00 4.827060222625732422e+00 -3.818741321563720703e+00 -4.095506668090820312e+00 1.072270774841308594e+01 3.145525693893432617e+00 -1.236663150787353516e+01 -2.335951566696166992e+00 -2.112675666809082031e+00 1.987637162208557129e+00 -2.444160699844360352e+00 6.422060728073120117e-01 6.246135756373405457e-02
-1.524291992187500000e+00 3.658075094223022461e+00 3.580770492553710938e-01 2.485768079757690430e+00 2.832214236259460449e-01 -1.105572938919067383e+00 1.047044277191162109e+00 5.027270913124084473e-01 3.383438289165496826e-01 3.849953651428222656e+00 -8.716197013854980469e-01 -3.610777616500854492e+00 2.993515133857727051e-01 -3.910810053348541260e-01 -2.702322959899902344e+00 -8.447023034095764160e-01 9.088480949401855469e+00 -8.302820205688476562e+00 2.302435874938964844e+00 1.730741620063781738e+00 -1.863449573516845703e+00 1.161541700363159180e+00 2.243444442749023438e+00 -1.386907100677490234e-01 -3.396920204162597656e+00 -4.027846813201904297e+00 -5.194139003753662109e+00 -4.063217341899871826e-01 4.007424414157867432e-01 -1.404374480247497559e+00 3.345428228378295898e+00 -2.240185737609863281e+00 -2.216582536697387695e+00 4.515127182006835938e+00 -2.833352565765380859e+00 1.187304782867431641e+01 -2.001275777816772461e+00 1.448070406913757324e+00 2.597776055335998535e-01 -2.164509296417236328e+00 -9.072991371154785156e+00 3.915406942367553711e+00 1.741591095924377441e+00 -1.790114283561706543e+00 2.117560148239135742e+00 5.863604545593261719e-01 6.395079940557479858e-02 -7.495331764221191406e-01 5.928866863250732422e-01 -3.921827375888824463e-01 -6.267658710479736328e+00 3.002777099609375000e+00 3.640605688095092773e+00 -4.976480960845947266e+00 -6.643273234367370605e-01 2.922460794448852539e+00 -3.232618570327758789e+00 -1.058219909667968750e+00 -3.309297859668731689e-01 -1.008045077323913574e+00 1.060991764068603516e+00 -4.786561965942382812e+00 1.394226789474487305e+00 3.590306520462036133e+00 -2.486197799444198608e-01 3.878279924392700195e+00 -7.172188162803649902e-01 3.030034303665161133e+00 -4.010684967041015625e+00 -3.574949979782104492e+00 9.059161543846130371e-01 7.312806844711303711e-01 1.188819289207458496e+00 8.755571246147155762e-01 8.446656227111816406e+00 5.278837680816650391e-01 -2.517623186111450195e+00 4.179166555404663086e-01 1.801910758018493652e+00 4.159613251686096191e-01 -1.284925818443298340e+00 -4.818685054779052734e+00 2.957625091075897217e-01 2.785561323165893555e+00 -4.310349941253662109e+00 3.190662384033203125e+00 1.889840960502624512e+00 -3.668126344680786133e+00 -4.696067333221435547e+00 5.421998500823974609e+00 -3.505362033843994141e+00 2.578788042068481445e+00 2.209423065185546875e+00 -4.449168443679809570e-01 -3.076025962829589844e+00 2.031279563903808594e+00
5.333483815193176270e-01 -8.215508460998535156e-01 1.301506876945495605e+00 -9.835755452513694763e-03 -6.464191913604736328e+00 -1.523443317413330078e+01 -1.651008009910583496e+00 7.213222980499267578e-01 -1.179833531379699707e+00 -3.380405902862548828e+00 1.301186561584472656e+00 -9.769136309623718262e-01 -3.564176797866821289e+00 1.593819975852966309e+00 -3.414729118347167969e+00 1.715851545333862305e+00 5.226644277572631836e-01 -2.291202694177627563e-01 -4.684211015701293945e-01 -2.742879390716552734e+00 3.758702278137207031e+00 -4.848998188972473145e-01 -2.959888935089111328e+00 2.542703390121459961e+00 -4.570546150207519531e+00 7.275195121765136719e+00 5.071913719177246094e+00 3.695313692092895508e+00 -6.639589071273803711e-01 -1.156411051750183105e+00 4.804614543914794922e+00 1.139656975865364075e-01 -1.560436040163040161e-01 4.566555500030517578e+00 -2.367969751358032227e+00 2.338184356689453125e+00 -3.988770008087158203e+00 -2.437542229890823364e-01 9.351825118064880371e-01 2.138859748840332031e+00 6.832429409027099609e+00 -2.684913873672485352e+00 1.670214533805847168e-02 -1.749787807464599609e+00 -1.066484451293945312e+00 -1.048875451087951660e+00 -1.402223259210586548e-01 -5.544147491455078125e-01 4.168271541595458984e+00 1.330756068229675293e+00 1.191900253295898438e+01 -6.438528895378112793e-01 2.397314786911010742e+00 -2.114076375961303711e+00 2.023604869842529297e+00 -4.648326873779296875e+00 -1.205848455429077148e+00 -2.077496528625488281e+00 -2.230843305587768555e+00 3.025762319564819336e+00 -1.209142327308654785e+00 1.535955071449279785e+00 1.191861748695373535e+00 -7.704074382781982422e-01 -3.901276588439941406e-01 -7.425984144210815430e-01 3.498396396636962891e+00 -3.492329716682434082e-01 -1.420624375343322754e+00 1.251510232686996460e-01 -1.460391640663146973e+00 -2.515047073364257812e+00 -3.222340583801269531e+00 -1.666618466377258301e+00 -5.675607919692993164e-01 3.707054138183593750e+00 -1.040872097015380859e+00 1.137080714106559753e-01 -7.918214201927185059e-01 1.217404365539550781e+00 4.943553924560546875e+00 -2.289704799652099609e+00 1.411717772483825684e+00 -2.795700311660766602e+00 -3.673718929290771484e+00 4.552351951599121094e+00 8.948064446449279785e-01 -1.447042636573314667e-02 -7.937921881675720215e-01 1.116990685462951660e+00 4.322594165802001953e+00 -2.020547837018966675e-01 -1.998376965522766113e+00 -1.456423044204711914e+00 1.303806453943252563e-01 8.592511415481567383e-01
7.793155908584594727e-01 8.188403844833374023e-01 -1.402870297431945801e+00 -1.135383844375610352e-01 1.924623370170593262e+00 -1.441283130645751953e+01 3.023721456527709961e+00 2.472338438034057617e+00 -5.539017915725708008e-01 -1.904518842697143555e+00 -3.836926817893981934e-01 3.928021192550659180e-01 -2.572557926177978516e+00 2.685756683349609375e-01 1.749714493751525879e+00 3.517899036407470703e+00 5.500556945800781250e+00 -1.852589011192321777e+00 -1.757536053657531738e+00 6.886751651763916016e+00 1.014319062232971191e+00 -6.629055142402648926e-01 5.579602718353271484e-01 4.838067054748535156e+00 -1.262243628501892090e+00 -2.245028316974639893e-01 -3.184848546981811523e+00 -5.940176010131835938e+00 5.860175132751464844e+00 1.059566855430603027e+00 5.998358502984046936e-02 -3.255543708801269531e+00 2.549889087677001953e-01 -1.564648032188415527e+00 -2.126609086990356445e+00 -5.989848077297210693e-02 3.832240343093872070e+00 -1.815463542938232422e+00 9.722369909286499023e-02 -4.527173519134521484e+00 1.896872669458389282e-01 8.459559679031372070e-01 -5.456335544586181641e+00 3.373635768890380859e+00 1.071537137031555176e+00 -4.038023352622985840e-01 6.991302967071533203e-01 1.620424985885620117e-01 -6.038492679595947266e+00 -1.625811195373535156e+01 -4.233246803283691406e+00 8.616338729858398438e+00 -3.479511737823486328e+00 4.634733676910400391e+00 1.011827111244201660e+00 9.203205108642578125e-01 -4.836632728576660156e+00 8.182548522949218750e+00 1.386350059509277344e+01 7.282386779785156250e+00 -7.916944503784179688e+00 2.273467779159545898e+00 6.236181259155273438e+00 2.803774118423461914e+00 -9.819647669792175293e-01 1.848194718360900879e+00 -2.403089404106140137e-01 2.512177705764770508e+00 -1.608468174934387207e+00 2.425954341888427734e+00 1.140490293502807617e+00 -1.298225641250610352e+00 -1.863795369863510132e-01 -7.590495944023132324e-01 6.735863685607910156e-01 8.261024355888366699e-01 -1.172595858573913574e+00 -2.180020511150360107e-01 2.417544126510620117e+00 2.347134500741958618e-01 -1.168168425559997559e+00 3.667180299758911133e+00 -3.327760696411132812e+00 -1.481533527374267578e+00 4.105170071125030518e-01 -8.433568954467773438e+00 -1.122243881225585938e+00 5.142186284065246582e-01 -2.474846601486206055e+00 4.968268871307373047e+00 -5.937952995300292969e+00 3.699280321598052979e-01 2.646914958953857422e+00 4.396349430084228516e+00 -5.173651695251464844e+00 -2.343023777008056641e+00